# vtk DataFile Version 3.0 
2D Unstructured Grid
ASCII
DATASET UNSTRUCTURED_GRID
POINTS 240 float 
0.1 0.4 0
0.2 0.4 0
0.1 -1.6 0
0.1 0.6 0
0.2 0.6 0
0.1 -1.4 0
0.1 1.8 0
0.2 1.8 0
0.1 -0.2 0
0.3 1 0
0.4224745 1 0
0.3 -0.6329932 0
0.3 1.2 0
0.4 1.2 0
0.3 -0.8 0
0.3 1.4 0
0.4224745 1.4 0
0.3 -0.2329932 0
0.1 0.2 0
0.1 0 0
0 0 0
0 0.2 0
0.1 0.4 0
0.1 0.2 0
0 0.2 0
0 0.4 0
0.1 0.6 0
0.1 0.4 0
0 0.4 0
0 0.6 0
0.1 0.8 0
0.1 0.6 0
0 0.6 0
0 0.8 0
0.1 1 0
0.1 0.8 0
0 0.8 0
0 1 0
0.1 1.2 0
0.1 1 0
0 1 0
0 1.2 0
0.1 1.4 0
0.1 1.2 0
0 1.2 0
0 1.4 0
0.1 1.6 0
0.1 1.4 0
0 1.4 0
0 1.6 0
0.1 1.8 0
0.1 1.6 0
0 1.6 0
0 1.8 0
0.1 2 0
0.1 1.8 0
0 1.8 0
0 2 0
0.1 0 0
0.2 0 0
0.2 0.3 0
0.1 -0.1 0
0 0 0
0 0 0
0 0 0
0 0 0
0.1 0.6 0
0.2 0.6 0
0.2 0.9 0
0.1 0.5 0
0 0 0
0 0 0
0 0 0
0 0 0
0.2 1 0
0.2 0.8 0
0.1 0.8 0
0.1 1 0
0.2 1.2 0
0.2 1 0
0.1 1 0
0.1 1.2 0
0.2 1.4 0
0.2 1.2 0
0.1 1.2 0
0.1 1.4 0
0.1 1.4 0
0.2 1.4 0
0.2 1.7 0
0.1 1.3 0
0 0 0
0 0 0
0 0 0
0 0 0
0.1 1.8 0
0.2 1.8 0
0.2 2.1 0
0.1 1.7 0
0 0 0
0 0 0
0 0 0
0 0 0
0.3 0.2 0
0.3 0 0
0.2 0 0
0.2 0.2 0
0.3 0.4 0
0.3 0.2 0
0.2 0.2 0
0.2 0.4 0
0.3 0.6 0
0.3 0.4 0
0.2 0.4 0
0.2 0.6 0
0.3 0.8 0
0.3 0.6 0
0.2 0.6 0
0.2 0.8 0
0.3 1 0
0.3 0.8 0
0.2 0.8 0
0.2 1 0
0.3 1.2 0
0.3 1 0
0.2 1 0
0.2 1.2 0
0.3 1.4 0
0.3 1.2 0
0.2 1.2 0
0.2 1.4 0
0.3 1.6 0
0.3 1.4 0
0.2 1.4 0
0.2 1.6 0
0.3 1.8 0
0.3 1.6 0
0.2 1.6 0
0.2 1.8 0
0.3 2 0
0.3 1.8 0
0.2 1.8 0
0.2 2 0
0.4 0.2 0
0.4 0 0
0.3 0 0
0.3 0.2 0
0.4 0.4 0
0.4 0.2 0
0.3 0.2 0
0.3 0.4 0
0.4 0.6 0
0.4 0.4 0
0.3 0.4 0
0.3 0.6 0
0.4 0.8 0
0.4 0.6 0
0.3 0.6 0
0.3 0.8 0
0.4 1.6 0
0.4 1.4 0
0.3 1.4 0
0.3 1.6 0
0.4 1.8 0
0.4 1.6 0
0.3 1.6 0
0.3 1.8 0
0.4 2 0
0.4 1.8 0
0.3 1.8 0
0.3 2 0
0.5 0.2 0
0.5 0 0
0.4 0 0
0.4 0.2 0
0.5 0.4 0
0.5 0.2 0
0.4 0.2 0
0.4 0.4 0
0.5 0.6 0
0.5 0.4 0
0.4 0.4 0
0.4 0.6 0
0.5 0.8 0
0.5 0.6 0
0.4 0.6 0
0.4 0.8 0
0.5 1 0
0.5 0.8 0
0.4 0.8 0
0.4 1 0
0.5 1.2 0
0.5 1 0
0.4 1 0
0.4 1.2 0
0.5 1.4 0
0.5 1.2 0
0.4 1.2 0
0.4 1.4 0
0.5 1.6 0
0.5 1.4 0
0.4 1.4 0
0.4 1.6 0
0.5 1.8 0
0.5 1.6 0
0.4 1.6 0
0.4 1.8 0
0.5 2 0
0.5 1.8 0
0.4 1.8 0
0.4 2 0
0.2 0.4 0
0.2 0.4 0
0.1 -1.6 0
0.1 0.2 0
0.2 0.2 0
0.2 0.6 0
0.2 0.6 0
0.1 -1.4 0
0.1 0.4 0
0.2 0.4 0
0.2 1.8 0
0.2 1.8 0
0.1 -0.2 0
0.1 1.6 0
0.2 1.6 0
0.4 1 0
0.4224745 1 0
0.3 -0.6329932 0
0.3 0.8 0
0.4 0.8 0
0.4 1.2 0
0.4 1.2 0
0.3 -0.8 0
0.3 1 0

CELLS 60 300
3 0 1 2
3 3 4 5
3 6 7 8
3 9 10 11
3 12 13 14
3 15 16 17
4 6 7 8 9
4 10 11 12 13
4 14 15 16 17
4 18 19 20 21
4 22 23 24 25
4 26 27 28 29
4 30 31 32 33
4 34 35 36 37
4 38 39 40 41
4 42 43 44 45
4 46 47 48 49
4 50 51 52 53
4 54 55 56 57
4 58 59 60 61
4 62 63 64 65
4 66 67 68 69
4 70 71 72 73
4 74 75 76 77
4 78 79 80 81
4 82 83 84 85
4 86 87 88 89
4 90 91 92 93
4 94 95 96 97
4 98 99 100 101
4 102 103 104 105
4 106 107 108 109
4 110 111 112 113
4 114 115 116 117
4 118 119 120 121
4 122 123 124 125
4 126 127 128 129
4 130 131 132 133
4 134 135 136 137
4 138 139 140 141
4 142 143 144 145
4 146 147 148 149
4 150 151 152 153
4 154 155 156 157
4 158 159 160 161
4 162 163 164 165
4 166 167 168 169
4 170 171 172 173
4 174 175 176 177
4 178 179 180 181
4 182 183 184 185
4 186 187 188 189
4 190 191 192 193
4 194 195 196 197
5 54 55 56 57 58
5 59 60 61 62 63
5 64 65 66 67 68
5 69 70 71 72 73
5 74 75 76 77 78
5 79 80 81 82 83

CELL_TYPES 60
5
5
5
5
5
5
9
9
9
9
9
9
9
9
9
9
9
9
9
9
9
9
9
9
9
9
9
9
9
9
9
9
9
9
9
9
9
9
9
9
9
9
9
9
9
9
9
9
9
9
9
9
9
9
7
7
7
7
7
7

CELL_DATA 60
SCALARS sol float 1
LOOKUP_TABLE default
1
1
1
1
1
1
0
0
0
0
0
0
0
0
0
0
1
0
1
0
0
0
0
1
0
1
0
0
0
0
0
0
0
0
0
0
0
0
0
0
0
0
0
0
0
0
0
0
0
0
0
0
0
0
0
0
0
0
0
0

