# vtk DataFile Version 3.0 
2D Unstructured Grid
ASCII
DATASET UNSTRUCTURED_GRID
POINTS 240 float 
<<<<<<< HEAD
=======
0.3 0.4 0
0.4 0.4 0
0.3 -1.6 0
0.3 0.6 0
0.4 0.6 0
0.3 -1.4 0
0.3 0.8 0
0.4 0.8 0
0.3 -1.2 0
0.3 1 0
0.4 1 0
0.3 -1 0
0.3 1.2 0
0.4 1.2 0
0.3 -0.8 0
0.3 1.4 0
0.4 1.4 0
0.3 -0.6 0
0.3 1.6 0
0.4 1.6 0
0.3 -0.4 0
0.3 1.8 0
0.4 1.8 0
0.3 -0.2 0
>>>>>>> ad32547743720b7084b411f45cb5b557144a0fd0
0.1 0.2 0
0.1 0 0
0 0 0
0 0.2 0
0.2 0.2 0
0.2 0 0
0.1 0 0
0.1 0.2 0
0.3 0.2 0
0.3 0 0
0.2 0 0
0.2 0.2 0
0.4 0.2 0
0.4 0 0
0.3 0 0
0.3 0.2 0
0.5 0.2 0
0.5 0 0
0.4 0 0
0.4 0.2 0
0.6 0.2 0
0.6 0 0
0.5 0 0
0.5 0.2 0
0.7 0.2 0
0.7 0 0
0.6 0 0
0.6 0.2 0
0.8 0.2 0
0.8 0 0
0.7 0 0
0.7 0.2 0
0.9 0.2 0
0.9 0 0
0.8 0 0
0.8 0.2 0
1 0.2 0
1 0 0
0.9 0 0
0.9 0.2 0
0.1 0.4 0
0.1 0.2 0
0 0.2 0
0 0.4 0
0.2 0.4 0
0.2 0.2 0
0.1 0.2 0
0.1 0.4 0
0.3 0.4 0
0.3 0.2 0
0.2 0.2 0
0.2 0.4 0
0.4 0.4 0
0.4 0.2 0
0.3 0.2 0
0.3 0.4 0
0.5 0.4 0
0.5 0.2 0
0.4 0.2 0
0.4 0.4 0
0.6 0.4 0
0.6 0.2 0
0.5 0.2 0
0.5 0.4 0
0.7 0.4 0
0.7 0.2 0
0.6 0.2 0
0.6 0.4 0
0.8 0.4 0
0.8 0.2 0
0.7 0.2 0
0.7 0.4 0
0.9 0.4 0
0.9 0.2 0
0.8 0.2 0
0.8 0.4 0
1 0.4 0
1 0.2 0
0.9 0.2 0
0.9 0.4 0
0.1 0.6 0
0.1 0.4 0
0 0.4 0
0 0.6 0
<<<<<<< HEAD
0.2 0.6 0
=======
0.1 0.8 0
0.1 0.6 0
0 0.6 0
0 0.8 0
0.1 1 0
0.1 0.8 0
0 0.8 0
0 1 0
0.1 1.2 0
0.1 1 0
0 1 0
0 1.2 0
0.1 1.4 0
0.1 1.2 0
0 1.2 0
0 1.4 0
0.1 1.6 0
0.1 1.4 0
0 1.4 0
0 1.6 0
0.1 1.8 0
0.1 1.6 0
0 1.6 0
0 1.8 0
0.1 2 0
0.1 1.8 0
0 1.8 0
0 2 0
0.2 0.2 0
0.2 0 0
0.1 0 0
0.1 0.2 0
0.2 0.4 0
0.2 0.2 0
0.1 0.2 0
0.1 0.4 0
0.2 0.6 0
0.2 0.4 0
0.1 0.4 0
0.1 0.6 0
0.2 0.8 0
0.2 0.6 0
0.1 0.6 0
0.1 0.8 0
0.2 1 0
0.2 0.8 0
0.1 0.8 0
0.1 1 0
0.2 1.2 0
0.2 1 0
0.1 1 0
0.1 1.2 0
0.2 1.4 0
0.2 1.2 0
0.1 1.2 0
0.1 1.4 0
0.2 1.6 0
0.2 1.4 0
0.1 1.4 0
0.1 1.6 0
0.2 1.8 0
0.2 1.6 0
0.1 1.6 0
0.1 1.8 0
0.2 2 0
0.2 1.8 0
0.1 1.8 0
0.1 2 0
0.3 0.2 0
0.3 0 0
0.2 0 0
0.2 0.2 0
0.3 0.4 0
0.3 0.2 0
0.2 0.2 0
>>>>>>> ad32547743720b7084b411f45cb5b557144a0fd0
0.2 0.4 0
0.1 0.4 0
0.1 0.6 0
0.3 0.6 0
0.3 0.4 0
0.2 0.4 0
0.2 0.6 0
0.4 0.6 0
0.4 0.4 0
0.3 0.4 0
0.3 0.6 0
0.5 0.6 0
0.5 0.4 0
0.4 0.4 0
0.4 0.6 0
0.6 0.6 0
0.6 0.4 0
0.5 0.4 0
0.5 0.6 0
0.7 0.6 0
0.7 0.4 0
0.6 0.4 0
0.6 0.6 0
0.8 0.6 0
0.8 0.4 0
0.7 0.4 0
0.7 0.6 0
0.9 0.6 0
0.9 0.4 0
0.8 0.4 0
0.8 0.6 0
1 0.6 0
1 0.4 0
0.9 0.4 0
0.9 0.6 0
0.1 0.8 0
0 0.8 0
0 0.7 0
0.1 0.7 0
0.1 0.6 0
0 0.6 0
0 0.7 0
0.1 0.7 0
0.2 0.8 0
0.1 0.8 0
0.1 0.7 0
0.2 0.7 0
0.2 0.6 0
0.1 0.6 0
0.1 0.7 0
0.2 0.7 0
0.3 0.8 0
0.2 0.8 0
<<<<<<< HEAD
0.2 0.7 0
0.3 0.7 0
0.3 0.6 0
0.2 0.6 0
0.2 0.7 0
0.3 0.7 0
0.4 0.8 0
0.3 0.8 0
0.3 0.7 0
0.4 0.7 0
0.4 0.6 0
0.3 0.6 0
0.3 0.7 0
0.4 0.7 0
0.5 0.8 0
0.4 0.8 0
0.4 0.7 0
0.5 0.7 0
=======
0.2 1 0
0.3 1.2 0
0.3 1 0
0.2 1 0
0.2 1.2 0
0.3 1.4 0
0.3 1.2 0
0.2 1.2 0
0.2 1.4 0
0.3 1.6 0
0.3 1.4 0
0.2 1.4 0
0.2 1.6 0
0.3 1.8 0
0.3 1.6 0
0.2 1.6 0
0.2 1.8 0
0.3 2 0
0.3 1.8 0
0.2 1.8 0
0.2 2 0
0.3 0 0
0.4 0 0
0.4 0.3 0
0.3 -0.1 0
0 0 0
0 0 0
0 0 0
0 0 0
0.3 1.8 0
0.4 1.8 0
0.4 2.1 0
0.3 1.7 0
0 0 0
0 0 0
0 0 0
0 0 0
0.5 0.2 0
0.5 0 0
0.4 0 0
0.4 0.2 0
0.5 0.4 0
0.5 0.2 0
0.4 0.2 0
0.4 0.4 0
>>>>>>> ad32547743720b7084b411f45cb5b557144a0fd0
0.5 0.6 0
0.4 0.6 0
0.4 0.7 0
0.5 0.7 0
0.6 0.8 0
0.5 0.8 0
0.5 0.7 0
0.6 0.7 0
0.6 0.6 0
0.5 0.6 0
0.5 0.7 0
0.6 0.7 0
0.7 0.8 0
0.6 0.8 0
0.6 0.7 0
0.7 0.7 0
0.7 0.6 0
0.6 0.6 0
0.6 0.7 0
0.7 0.7 0
0.8 0.8 0
0.7 0.8 0
0.7 0.7 0
0.8 0.7 0
0.8 0.6 0
0.7 0.6 0
0.7 0.7 0
0.8 0.7 0
0.9 0.8 0
0.8 0.8 0
0.8 0.7 0
0.9 0.7 0
0.9 0.6 0
0.8 0.6 0
0.8 0.7 0
0.9 0.7 0
1 0.8 0
0.9 0.8 0
0.9 0.7 0
1 0.7 0
1 0.6 0
0.9 0.6 0
0.9 0.7 0
1 0.7 0
0.1 1 0
0.1 0.8 0
0 0.8 0
0 1 0
0.2 1 0
0.2 0.8 0
0.1 0.8 0
0.1 1 0
0.3 1 0
0.3 0.8 0
0.2 0.8 0
0.2 1 0
0.4 1 0
0.4 0.8 0
0.3 0.8 0
0.3 1 0
0.5 1 0
0.5 0.8 0
0.4 0.8 0
0.4 1 0
0.6 1 0
0.6 0.8 0
0.5 0.8 0
0.5 1 0
<<<<<<< HEAD
0.7 1 0
0.7 0.8 0
0.6 0.8 0
0.6 1 0
0.8 1 0
0.8 0.8 0
0.7 0.8 0
0.7 1 0
0.9 1 0
0.9 0.8 0
0.8 0.8 0
0.8 1 0
1 1 0
1 0.8 0
0.9 0.8 0
0.9 1 0

CELLS 60 300
4 0 1 2 3
4 4 5 6 7
=======
0.4 1 0
0.4 1.2 0
0.5 1.4 0
0.5 1.2 0
0.4 1.2 0
0.4 1.4 0
0.5 1.6 0
0.5 1.4 0
0.4 1.4 0
0.4 1.6 0
0.5 1.8 0
0.5 1.6 0
0.4 1.6 0
0.4 1.8 0
0.5 2 0
0.5 1.8 0
0.4 1.8 0
0.4 2 0
0.4 0.4 0
0.4 0.4 0
0.3 -1.6 0
0.3 0.2 0
0.4 0.2 0
0.4 0.6 0
0.4 0.6 0
0.3 -1.4 0
0.3 0.4 0
0.4 0.4 0
0.4 0.8 0
0.4 0.8 0
0.3 -1.2 0
0.3 0.6 0
0.4 0.6 0
0.4 1 0
0.4 1 0
0.3 -1 0
0.3 0.8 0
0.4 0.8 0
0.4 1.2 0
0.4 1.2 0
0.3 -0.8 0
0.3 1 0
0.4 1 0
0.4 1.4 0
0.4 1.4 0
0.3 -0.6 0
0.3 1.2 0
0.4 1.2 0
0.4 1.6 0
0.4 1.6 0

CELLS 60 300
3 0 1 2
3 3 4 5
3 6 7 8
3 9 10 11
3 12 13 14
3 15 16 17
3 18 19 20
3 21 22 23
>>>>>>> ad32547743720b7084b411f45cb5b557144a0fd0
4 8 9 10 11
4 12 13 14 15
4 16 17 18 19
4 20 21 22 23
4 24 25 26 27
4 28 29 30 31
4 32 33 34 35
4 36 37 38 39
4 40 41 42 43
4 44 45 46 47
4 48 49 50 51
4 52 53 54 55
4 56 57 58 59
4 60 61 62 63
4 64 65 66 67
4 68 69 70 71
4 72 73 74 75
4 76 77 78 79
4 80 81 82 83
4 84 85 86 87
4 88 89 90 91
4 92 93 94 95
4 96 97 98 99
4 100 101 102 103
4 104 105 106 107
4 108 109 110 111
4 112 113 114 115
4 116 117 118 119
4 120 121 122 123
4 124 125 126 127
4 128 129 130 131
4 132 133 134 135
4 136 137 138 139
4 140 141 142 143
4 144 145 146 147
4 148 149 150 151
4 152 153 154 155
4 156 157 158 159
4 160 161 162 163
4 164 165 166 167
4 168 169 170 171
4 172 173 174 175
4 176 177 178 179
4 180 181 182 183
<<<<<<< HEAD
4 184 185 186 187
4 188 189 190 191
4 192 193 194 195
4 196 197 198 199
4 200 201 202 203
4 204 205 206 207
4 208 209 210 211
4 212 213 214 215
4 216 217 218 219
4 220 221 222 223
4 224 225 226 227
4 228 229 230 231
4 232 233 234 235
4 236 237 238 239

CELL_TYPES 60
=======
5 52 53 54 55 56
5 57 58 59 60 61
5 62 63 64 65 66
5 67 68 69 70 71
5 72 73 74 75 76
5 77 78 79 80 81
5 82 83 84 85 86
5 87 88 89 90 91

CELL_TYPES 60
5
5
5
5
5
5
5
5
>>>>>>> ad32547743720b7084b411f45cb5b557144a0fd0
9
9
9
9
9
9
9
9
9
9
9
9
9
9
9
9
9
9
9
9
9
9
9
9
9
9
9
9
9
9
9
9
9
9
9
9
9
9
9
9
9
9
9
9
<<<<<<< HEAD
9
9
9
9
9
9
9
9
9
9
9
9
9
9
9
9
=======
7
7
7
7
7
7
7
7
>>>>>>> ad32547743720b7084b411f45cb5b557144a0fd0

CELL_DATA 60
SCALARS sol float 1
LOOKUP_TABLE default
<<<<<<< HEAD
=======
1
1
1
1
1
1
1
1
>>>>>>> ad32547743720b7084b411f45cb5b557144a0fd0
0
0
0
0
0
0
0
0
0
0
<<<<<<< HEAD
=======
0
0
0
0
0
0
0
0
0
0
>>>>>>> ad32547743720b7084b411f45cb5b557144a0fd0
0
0
0
0
0
0
0
0
0
0
1
0
1
0
0
0
0
0
0
0
0
0
1
0
1
0
1
0
1
0
1
0
1
0
1
0
1
0
1
0
1
0
1
1
1
1
1
1
1
1
1
1

