# vtk DataFile Version 3.0 
2D Unstructured Grid
ASCII
DATASET UNSTRUCTURED_GRID
POINTS 308 float 
0.4 0.4 0
0.5 0.4 0
0.4 -1.6 0
0.4 0.6 0
0.5 0.6 0
0.4 -1.4 0
0.4 0.8 0
0.5 0.8 0
0.4 -1.2 0
0.4 1 0
0.5 1 0
0.4 -1 0
0.4 1.2 0
0.5 1.2 0
0.4 -0.8 0
0.4 1.4 0
0.5 1.4 0
0.4 -0.6 0
0.4 1.6 0
0.5 1.6 0
0.4 -0.4 0
0.4 1.8 0
0.5 1.8 0
0.4 -0.2 0
0.4 2 0
0.5 2 0
0.4 0 0
0.1 0.2 0
0.1 0 0
0 0 0
0 0.2 0
0.1 0.4 0
0.1 0.2 0
0 0.2 0
0 0.4 0
0.1 0.6 0
0.1 0.4 0
0 0.4 0
0 0.6 0
0.1 0.8 0
0.1 0.6 0
0 0.6 0
0 0.8 0
0.1 1 0
0.1 0.8 0
0 0.8 0
0 1 0
0.1 1.2 0
0.1 1 0
0 1 0
0 1.2 0
0.1 1.4 0
0.1 1.2 0
0 1.2 0
0 1.4 0
0.1 1.6 0
0.1 1.4 0
0 1.4 0
0 1.6 0
0.1 1.8 0
0.1 1.6 0
0 1.6 0
0 1.8 0
0.1 2 0
0.1 1.8 0
0 1.8 0
0 2 0
0.1 2.2 0
0.1 2 0
0 2 0
0 2.2 0
0.2 0.2 0
0.2 0 0
0.1 0 0
0.1 0.2 0
0.2 0.4 0
0.2 0.2 0
0.1 0.2 0
0.1 0.4 0
0.2 0.6 0
0.2 0.4 0
0.1 0.4 0
0.1 0.6 0
0.2 0.8 0
0.2 0.6 0
0.1 0.6 0
0.1 0.8 0
0.2 1 0
0.2 0.8 0
0.1 0.8 0
0.1 1 0
0.2 1.2 0
0.2 1 0
0.1 1 0
0.1 1.2 0
0.2 1.4 0
0.2 1.2 0
0.1 1.2 0
0.1 1.4 0
0.2 1.6 0
0.2 1.4 0
0.1 1.4 0
0.1 1.6 0
0.2 1.8 0
0.2 1.6 0
0.1 1.6 0
0.1 1.8 0
0.2 2 0
0.2 1.8 0
0.1 1.8 0
0.1 2 0
0.2 2.2 0
0.2 2 0
0.1 2 0
0.1 2.2 0
0.3 0.2 0
0.3 0 0
0.2 0 0
0.2 0.2 0
0.3 0.4 0
0.3 0.2 0
0.2 0.2 0
0.2 0.4 0
0.3 0.6 0
0.3 0.4 0
0.2 0.4 0
0.2 0.6 0
0.3 0.8 0
0.3 0.6 0
0.2 0.6 0
0.2 0.8 0
0.3 1 0
0.3 0.8 0
0.2 0.8 0
0.2 1 0
0.3 1.2 0
0.3 1 0
0.2 1 0
0.2 1.2 0
0.3 1.4 0
0.3 1.2 0
0.2 1.2 0
0.2 1.4 0
0.3 1.6 0
0.3 1.4 0
0.2 1.4 0
0.2 1.6 0
0.3 1.8 0
0.3 1.6 0
0.2 1.6 0
0.2 1.8 0
0.3 2 0
0.3 1.8 0
0.2 1.8 0
0.2 2 0
0.3 2.2 0
0.3 2 0
0.2 2 0
0.2 2.2 0
0.4 0.2 0
0.4 0 0
0.3 0 0
0.3 0.2 0
0.4 0.4 0
0.4 0.2 0
0.3 0.2 0
0.3 0.4 0
0.4 0.6 0
0.4 0.4 0
0.3 0.4 0
0.3 0.6 0
0.4 0.8 0
0.4 0.6 0
0.3 0.6 0
0.3 0.8 0
0.4 1 0
0.4 0.8 0
0.3 0.8 0
0.3 1 0
0.4 1.2 0
0.4 1 0
0.3 1 0
0.3 1.2 0
0.4 1.4 0
0.4 1.2 0
0.3 1.2 0
0.3 1.4 0
0.4 1.6 0
0.4 1.4 0
0.3 1.4 0
0.3 1.6 0
0.4 1.8 0
0.4 1.6 0
0.3 1.6 0
0.3 1.8 0
0.4 2 0
0.4 1.8 0
0.3 1.8 0
0.3 2 0
0.4 2.2 0
0.4 2 0
0.3 2 0
0.3 2.2 0
0.4 0 0
0.5 0 0
0.5 0.3 0
0.4 -0.1 0
0 0 0
0 0 0
0 0 0
0 0 0
0.4 2 0
0.5 2 0
0.5 2.3 0
0.4 1.9 0
0 0 0
0 0 0
0 0 0
0 0 0
0.6 0.2 0
0.6 0 0
0.5 0 0
0.5 0.2 0
0.6 0.4 0
0.6 0.2 0
0.5 0.2 0
0.5 0.4 0
0.6 0.6 0
0.6 0.4 0
0.5 0.4 0
0.5 0.6 0
0.6 0.8 0
0.6 0.6 0
0.5 0.6 0
0.5 0.8 0
0.6 1 0
0.6 0.8 0
0.5 0.8 0
0.5 1 0
0.6 1.2 0
0.6 1 0
0.5 1 0
0.5 1.2 0
0.6 1.4 0
0.6 1.2 0
0.5 1.2 0
0.5 1.4 0
0.6 1.6 0
0.6 1.4 0
0.5 1.4 0
0.5 1.6 0
0.6 1.8 0
0.6 1.6 0
0.5 1.6 0
0.5 1.8 0
0.6 2 0
0.6 1.8 0
0.5 1.8 0
0.5 2 0
0.6 2.2 0
0.6 2 0
0.5 2 0
0.5 2.2 0
0.5 0.4 0
0.5 0.4 0
0.4 -1.6 0
0.4 0.2 0
0.5 0.2 0
0.5 0.6 0
0.5 0.6 0
0.4 -1.4 0
0.4 0.4 0
0.5 0.4 0
0.5 0.8 0
0.5 0.8 0
0.4 -1.2 0
0.4 0.6 0
0.5 0.6 0
0.5 1 0
0.5 1 0
0.4 -1 0
0.4 0.8 0
0.5 0.8 0
0.5 1.2 0
0.5 1.2 0
0.4 -0.8 0
0.4 1 0
0.5 1 0
0.5 1.4 0
0.5 1.4 0
0.4 -0.6 0
0.4 1.2 0
0.5 1.2 0
0.5 1.6 0
0.5 1.6 0
0.4 -0.4 0
0.4 1.4 0
0.5 1.4 0
0.5 1.8 0

CELLS 77 385
3 0 1 2
3 3 4 5
3 6 7 8
3 9 10 11
3 12 13 14
3 15 16 17
3 18 19 20
3 21 22 23
3 24 25 26
4 9 10 11 12
4 13 14 15 16
4 17 18 19 20
4 21 22 23 24
4 25 26 27 28
4 29 30 31 32
4 33 34 35 36
4 37 38 39 40
4 41 42 43 44
4 45 46 47 48
4 49 50 51 52
4 53 54 55 56
4 57 58 59 60
4 61 62 63 64
4 65 66 67 68
4 69 70 71 72
4 73 74 75 76
4 77 78 79 80
4 81 82 83 84
4 85 86 87 88
4 89 90 91 92
4 93 94 95 96
4 97 98 99 100
4 101 102 103 104
4 105 106 107 108
4 109 110 111 112
4 113 114 115 116
4 117 118 119 120
4 121 122 123 124
4 125 126 127 128
4 129 130 131 132
4 133 134 135 136
4 137 138 139 140
4 141 142 143 144
4 145 146 147 148
4 149 150 151 152
4 153 154 155 156
4 157 158 159 160
4 161 162 163 164
4 165 166 167 168
4 169 170 171 172
4 173 174 175 176
4 177 178 179 180
4 181 182 183 184
4 185 186 187 188
4 189 190 191 192
4 193 194 195 196
4 197 198 199 200
4 201 202 203 204
4 205 206 207 208
4 209 210 211 212
4 213 214 215 216
4 217 218 219 220
4 221 222 223 224
4 225 226 227 228
4 229 230 231 232
4 233 234 235 236
4 237 238 239 240
4 241 242 243 244
5 68 69 70 71 72
5 73 74 75 76 77
5 78 79 80 81 82
5 83 84 85 86 87
5 88 89 90 91 92
5 93 94 95 96 97
5 98 99 100 101 102
5 103 104 105 106 107
5 108 109 110 111 112

CELL_TYPES 77
5
5
5
5
5
5
5
5
5
9
9
9
9
9
9
9
9
9
9
9
9
9
9
9
9
9
9
9
9
9
9
9
9
9
9
9
9
9
9
9
9
9
9
9
9
9
9
9
9
9
9
9
9
9
9
9
9
9
9
9
9
9
9
9
9
9
9
9
7
7
7
7
7
7
7
7
7

CELL_DATA 77
SCALARS sol float 1
LOOKUP_TABLE default
1
1
1
1
1
1
1
1
1
0
0
0
0
0
0
0
0
0
0
0
0
0
0
0
0
0
0
0
0
0
0
0
0
0
0
0
0
0
0
0
0
0
0
0
0
0
0
0
0
0
0
0
0
1
0
1
0
0
0
0
0
0
0
0
0
0
0
0
0
0
0
0
0
0
0
0
0

